REMARK  Name = 14052
REMARK  13 active torsions:
REMARK  status: ('A' for Active; 'I' for Inactive)
REMARK    1  A    between atoms: O_1  and  C_11
REMARK    2  A    between atoms: O_2  and  C_12
REMARK    3  A    between atoms: N_3  and  CA_5
REMARK    4  A    between atoms: N_3  and  C_7
REMARK    5  A    between atoms: N_4  and  CA_6
REMARK    6  A    between atoms: N_4  and  C_8
REMARK    7  A    between atoms: CA_5  and  C_9
REMARK    8  A    between atoms: CA_5  and  C_11
REMARK    9  A    between atoms: CA_6  and  C_10
REMARK   10  A    between atoms: CA_6  and  C_12
REMARK   11  A    between atoms: C_7  and  C_8
REMARK   12  A    between atoms: C_9  and  C_13
REMARK   13  A    between atoms: C_10  and  C_14
REMARK                            x       y       z     vdW  Elec       q    Type
REMARK                         _______ _______ _______ _____ _____    ______ ____
ROOT
ATOM      1  C   UNL     1       0.658   0.529   0.381  1.00  0.00    +0.000 C 
ENDROOT
BRANCH   1   2
ATOM      2  N   UNL     1       1.780   0.523  -0.544  1.00  0.00    +0.000 NA
ATOM      3  H   UNL     1       1.734   1.343  -1.148  1.00  0.00    +0.000 HD
BRANCH   2   4
ATOM      4  CA  UNL     1       3.050   0.516   0.183  1.00  0.00    +0.000 C 
BRANCH   4   5
ATOM      5  C   UNL     1       3.164  -0.723   1.092  1.00  0.00    +0.000 C 
ATOM      6  C   UNL     1       3.104  -2.044   0.335  1.00  0.00    +0.000 C 
ENDBRANCH   4   5
BRANCH   4   7
ATOM      7  C   UNL     1       4.196   0.567  -0.833  1.00  0.00    +0.000 C 
BRANCH   7   8
ATOM      8  O   UNL     1       5.443   0.630  -0.150  1.00  0.00    +0.000 OA
ATOM      9  H   UNL     1       5.432   1.426   0.408  1.00  0.00    +0.000 HD
ENDBRANCH   7   8
ENDBRANCH   4   7
ENDBRANCH   2   4
ENDBRANCH   1   2
BRANCH   1  10
ATOM     10  C   UNL     1      -0.659   0.534  -0.389  1.00  0.00    +0.000 C 
BRANCH  10  11
ATOM     11  N   UNL     1      -1.784   0.522   0.538  1.00  0.00    +0.000 NA
ATOM     12  H   UNL     1      -1.735   1.339   1.147  1.00  0.00    +0.000 HD
BRANCH  11  13
ATOM     13  CA  UNL     1      -3.050   0.516  -0.181  1.00  0.00    +0.000 C 
BRANCH  13  14
ATOM     14  C   UNL     1      -3.166  -0.721  -1.091  1.00  0.00    +0.000 C 
ATOM     15  C   UNL     1      -3.103  -2.043  -0.337  1.00  0.00    +0.000 C 
ENDBRANCH  13  14
BRANCH  13  16
ATOM     16  C   UNL     1      -4.193   0.565   0.838  1.00  0.00    +0.000 C 
BRANCH  16  17
ATOM     17  O   UNL     1      -5.441   0.629   0.159  1.00  0.00    +0.000 OA
ATOM     18  H   UNL     1      -5.433   1.426  -0.398  1.00  0.00    +0.000 HD
ENDBRANCH  16  17
ENDBRANCH  13  16
ENDBRANCH  11  13
ENDBRANCH  10  11
ENDBRANCH   1  10
TORSDOF 11
