REMARK  Name = 3767
REMARK  2 active torsions:
REMARK  status: ('A' for Active; 'I' for Inactive)
REMARK    1  A    between atoms: N_2  and  N_4
REMARK    2  A    between atoms: C_5  and  C_8
REMARK                            x       y       z     vdW  Elec       q    Type
REMARK                         _______ _______ _______ _____ _____    ______ ____
ROOT
ATOM      1  O   UNL     1       1.807  -1.451   0.410  1.00  0.00    -0.269 OA
ATOM      2  N   UNL     1       2.152   0.751  -0.234  1.00  0.00    -0.250 N 
ATOM      3  C   UNL     1       1.343  -0.339   0.097  1.00  0.00    +0.257 C 
ATOM      4  H   UNL     1       1.743   1.613  -0.476  1.00  0.00    +0.000 HD
ENDROOT
BRANCH   3   6
ATOM      5  N   UNL     1      -2.859   0.272  -0.059  1.00  0.00    -0.263 NA
ATOM      6  C   UNL     1      -0.094  -0.130   0.043  1.00  0.00    +0.041 A 
ATOM      7  C   UNL     1      -0.947  -1.201  -0.201  1.00  0.00    -0.031 A 
ATOM      8  C   UNL     1      -0.623   1.142   0.234  1.00  0.00    -0.031 A 
ATOM      9  C   UNL     1      -2.309  -0.950  -0.241  1.00  0.00    +0.028 A 
ATOM     10  C   UNL     1      -1.999   1.288   0.174  1.00  0.00    +0.028 A 
ENDBRANCH   3   6
BRANCH   2  11
ATOM     11  N   UNL     1       3.528   0.619  -0.222  1.00  0.00    -0.254 NA
ATOM     12  H   UNL     1       3.775  -0.333   0.048  1.00  0.00    +0.000 HD
ATOM     13  H   UNL     1       3.927   1.277   0.447  1.00  0.00    +0.000 HD
ENDBRANCH   2  11
TORSDOF 2
